17
step=0 time_fs=0.000 KE=1.749244 PE=70.023960 TE=71.773204 T=36.677 Q_A=-0.5099 Q_H=0.5000 Q_B=0.0099
C   1.88108990  1.86349234  5.62299317
Cl  1.05615644  2.67281205  6.86978361
C   1.14154998  2.44710033 -0.59695312
Cl  1.82429646  3.35286312  0.66932134
C  -6.65996327 -0.63117492 -1.67711864
Cl -5.46358649  0.52435361 -1.32578345
C  -1.77568418 -3.34914972  4.22225755
Cl -3.30992984 -3.35602839  3.49010802
C  -1.88528010 -0.84445454 -1.73929815
Cl -0.58102082 -1.76439468 -2.32463384
C  -6.03441547 -0.65682704  2.59892867
Cl -6.14460920 -1.85820573  1.40120308
C  -2.90752043 -4.67004841 -5.04840418
Cl -3.75701131 -3.61434137 -4.02183325
O  -5.07286248  3.30599598  1.48024122
H  -4.49212244  2.49241693  1.50905326
N  -3.50486437  1.10933254  1.55803373
17
step=100 time_fs=100.000 KE=5.311437 PE=66.462292 TE=71.773729 T=111.367 Q_A=-0.5110 Q_H=0.5000 Q_B=0.0110
C   1.58471897  2.02082303  5.41309453
Cl  1.09557168  2.61017939  6.93078818
C   1.14784895  2.40695975 -0.53136627
Cl  1.85829879  3.27412954  0.74663122
C  -6.46195315 -0.55508730 -2.15760537
Cl -5.59762524  0.60621501 -1.26636231
C  -1.93363600 -3.40259643  4.30700736
Cl -3.28821080 -3.34606993  3.28137006
C  -1.89477438 -0.84678080 -1.84774106
Cl -0.49914671 -1.67207918 -2.35872638
C  -6.29126519 -1.14321701  2.94318625
Cl -6.15762286 -2.03925143  1.50469328
C  -2.88081271 -4.57817409 -5.03736399
Cl -3.78958301 -3.52391844 -4.06130991
O  -5.11246967  3.25448974  1.47694511
H  -6.02016138  3.31668943  1.01087552
N  -3.29047399  1.27068467  1.63483055
17
step=200 time_fs=200.000 KE=6.025488 PE=65.741406 TE=71.766895 T=126.339 Q_A=-0.5103 Q_H=0.5000 Q_B=0.0103
C   1.23466746  2.35161927  5.22640498
Cl  1.15025155  2.49019980  6.91864296
C   1.10089636  2.32497873 -0.43791688
Cl  1.85895125  3.13118546  0.85258051
C  -5.99576473 -0.38582822 -2.64254851
Cl -5.80167037  0.68335907 -1.33519778
C  -2.00803122 -3.43617067  4.41486930
Cl -3.12211234 -3.37656654  3.13218828
C  -2.01967853 -1.00785588 -1.86558669
Cl -0.46910581 -1.49355836 -2.36540400
C  -6.64429048 -1.63396061  3.20663061
Cl -6.31063728 -2.16936254  1.62801720
C  -2.76734573 -4.38299035 -4.87762332
Cl -3.87830008 -3.36646493 -4.08866419
O  -5.14228179  3.14845629  1.46206202
H  -4.80183706  2.66429939  0.64673794
N  -3.05323453  1.47348443  1.70199487
17
step=300 time_fs=300.000 KE=6.338714 PE=65.431272 TE=71.769987 T=132.907 Q_A=-0.5115 Q_H=0.5000 Q_B=0.0115
C   0.88174954  2.79237181  5.16640799
Cl  1.20067006  2.33326130  6.77186968
C   1.02499094  2.16972988 -0.31351999
Cl  1.79674146  2.92973355  0.99674546
C  -5.63873794 -0.21810641 -2.80833695
Cl -5.89561468  0.76136549 -1.44281539
C  -2.06702902 -3.43997046  4.51437894
Cl -2.86303582 -3.39810598  3.01283955
C  -2.03126657 -1.18412798 -1.58861815
Cl -0.51482203 -1.24265347 -2.35475830
C  -6.84138909 -2.07105307  3.31802970
Cl -6.54802042 -2.19679491  1.64826211
C  -2.60691484 -4.09243866 -4.57950033
Cl -4.00018581 -3.21094916 -4.16504618
O  -5.14331975  2.99298279  1.42751948
H  -5.80275017  2.20942590  1.30022999
N  -2.83769958  1.64770330  1.73681916
17
step=400 time_fs=400.000 KE=6.643533 PE=65.111043 TE=71.754576 T=139.298 Q_A=-0.5103 Q_H=0.5000 Q_B=0.0103
C   0.62076273  3.18653406  5.23040472
Cl  1.20483521  2.18962380  6.47741286
C   0.90464316  1.95517357 -0.16039150
Cl  1.65239898  2.67970691  1.18345101
C  -5.62037518  0.01653520 -2.93121216
Cl -5.88450585  0.85042037 -1.47351861
C  -2.14453816 -3.40632596  4.52871201
Cl -2.61691747 -3.35870578  2.89635479
C  -1.79947672 -1.30968745 -1.04146986
Cl -0.69252261 -0.95524820 -2.28204450
C  -6.86892733 -2.52067485  3.29238684
Cl -6.75439582 -2.14983151  1.63728631
C  -2.46845779 -3.74185967 -4.24272225
Cl -4.05230409 -3.12577440 -4.28596390
O  -5.12779760  2.78617507  1.40186208
H  -5.67400257  3.04256420  0.59482872
N  -2.64746393  1.80993657  1.73240838
17
step=500 time_fs=500.000 KE=6.096680 PE=65.659896 TE=71.756576 T=127.832 Q_A=-0.5110 Q_H=0.5000 Q_B=0.0110
C   0.47294646  3.41007319  5.26599965
Cl  1.14802015  2.08778759  6.09415199
C   0.80150924  1.77828543 -0.01173636
Cl  1.43385111  2.41145912  1.43368221
C  -5.65589868  0.17291951 -3.04613247
Cl -5.83161749  0.92233927 -1.53038417
C  -2.22103327 -3.29884508  4.44468527
Cl -2.40600554 -3.26235393  2.75517242
C  -1.54097680 -1.30628676 -0.53795484
Cl -1.03249686 -0.67579911 -2.03258974
C  -6.73255946 -2.91333954  3.09348072
Cl -6.91104112 -2.07361968  1.62616520
C  -2.41794265 -3.46498688 -4.03022212
Cl -4.02854079 -3.04499724 -4.37602895
O  -5.07347753  2.58752258  1.40845269
H  -4.58313715  1.86014054  0.88102420
N  -2.48105669  1.95156453  1.69943239
17
step=600 time_fs=600.000 KE=7.223545 PE=64.523619 TE=71.747163 T=151.460 Q_A=-0.5103 Q_H=0.5000 Q_B=0.0103
C   0.38353808  3.48221124  5.15904342
Cl  1.04094777  2.00363095  5.68020832
C   1.07444331  1.91778703  0.08180217
Cl  1.20466242  2.14782626  1.76112493
C  -5.64198464  0.18541511 -3.19746690
Cl -5.71938473  0.90363378 -1.65858056
C  -2.25762458 -3.09035217  4.31583589
Cl -2.25775304 -3.14818066  2.61681975
C  -1.51581490 -1.27160832 -0.18988038
Cl -1.48167976 -0.42491221 -1.66363086
C  -6.48538815 -3.19048044  2.71537469
Cl -6.99453825 -1.98799763  1.62688891
C  -2.41465276 -3.35125390 -3.97990057
Cl -4.00006789 -2.93430298 -4.43002365
O  -5.00626600  2.39906471  1.47490203
H  -5.84052007  1.85076162  1.33712348
N  -2.32768325  2.05426263  1.67892630
17
step=700 time_fs=700.000 KE=8.511788 PE=63.233795 TE=71.745583 T=178.471 Q_A=-0.5103 Q_H=0.5000 Q_B=0.0103
C   0.24629238  3.47205849  5.05989691
Cl  0.88829495  1.92390828  5.34461363
C   1.51600278  2.22296432  0.26567057
Cl  1.20029056  1.82574440  1.88818162
C  -5.56146840  0.17658968 -3.33401866
Cl -5.59990703  0.85168415 -1.77428473
C  -2.22009072 -2.71285741  4.31264320
Cl -2.25727999 -3.24420863  2.69824460
C  -1.57620424 -0.96365637 -0.06797355
Cl -1.95532012 -0.07289909 -1.46540785
C  -6.16029855 -3.29487237  2.14687539
Cl -7.00178332 -1.90298036  1.65236552
C  -2.39496437 -3.22747958 -3.92382371
Cl -3.95587044 -2.85991213 -4.48815201
O  -4.98759681  2.20141627  1.58354991
H  -5.53342568  2.01441510  0.75633191
N  -2.25693866  2.13416161  1.67726267
17
step=800 time_fs=800.000 KE=9.146366 PE=62.596753 TE=71.743120 T=191.776 Q_A=-0.5106 Q_H=0.5000 Q_B=0.0106
C   0.01739510  3.39721954  5.00168383
Cl  0.65947102  1.85478923  5.31576545
C   1.82490877  2.50833412  0.39105706
Cl  1.47095523  1.38998021  1.62150471
C  -5.53654590  0.32307200 -3.40605523
Cl -5.58471136  0.84036403 -1.78738631
C  -2.11498405 -2.21791106  4.14972173
Cl -2.33760599 -3.41170073  2.96005552
C  -1.61314555 -0.66890802 -0.12233904
Cl -2.25905391  0.26396585 -1.38825717
C  -5.87557264 -3.17590182  1.43593951
Cl -6.88329072 -1.82889933  1.68106917
C  -2.36165290 -2.99343343 -3.77624595
Cl -3.85996590 -2.88378675 -4.57188138
O  -5.00675588  1.96838790  1.67879442
H  -5.30524736  2.11404711  0.71929377
N  -2.28770414  2.29698013  1.74232107
17
step=900 time_fs=900.000 KE=9.945570 PE=61.778958 TE=71.724528 T=208.534 Q_A=-0.5099 Q_H=0.5000 Q_B=0.0099
C  -0.26192323  3.22913191  4.79076008
Cl  0.37094530  1.75985347  5.36582381
C   1.92959569  2.59998389  0.70306164
Cl  1.72808949  0.97649690  1.16532267
C  -5.54096728  0.50380479 -3.37857600
Cl -5.94687394  0.87927538 -1.77101212
C  -2.04181961 -1.79992851  3.70565471
Cl -2.40884055 -3.39776669  3.25597842
C  -1.69256519 -0.64566895 -0.11506971
Cl -2.10681108  0.45579084 -1.34193020
C  -5.66904438 -2.78630873  0.69875837
Cl -6.63032964 -1.77449607  1.66941062
C  -2.39506327 -2.65984872 -3.60201375
Cl -3.73098007 -2.91547035 -4.62180974
O  -4.97261852  1.70720761  1.74545226
H  -5.40450297  0.80791718  1.79366483
N  -2.37849072  2.55328542  1.90616549
17
step=1000 time_fs=1000.000 KE=8.292071 PE=63.439217 TE=71.731288 T=173.864 Q_A=-0.5108 Q_H=0.5000 Q_B=0.0108
C  -0.40655183  3.12692106  4.76392103
Cl  0.05258852  1.59418258  5.33829277
C   1.84613075  2.32420509  1.13194958
Cl  1.87238611  0.68211507  0.69280153
C  -5.47945851  0.66826867 -3.19063282
Cl -6.35163760  0.82889248 -1.74028679
C  -2.06424363 -1.51795646  3.45850592
Cl -2.48611530 -3.16477754  3.45635908
C  -1.81174005 -0.46938129 -0.00308926
Cl -1.86953505  0.59815781 -1.32483809
C  -5.52545351 -2.17943342  0.09370369
Cl -6.22325413 -1.71076126  1.57134393
C  -2.41573699 -2.35871225 -3.54203842
Cl -3.63601854 -2.88534407 -4.60202515
O  -4.87520290  1.39593319  1.82760234
H  -5.00978370  1.14409654  0.84941357
N  -2.54170238  2.76997033  2.01426654
