17
step=0 time_fs=0.000 KE=1.749244 PE=98.246932 TE=99.996176 T=36.677
C   1.88108990  1.86349234  5.62299317
Cl  1.05615644  2.67281205  6.86978361
C   1.14154998  2.44710033 -0.59695312
Cl  1.82429646  3.35286312  0.66932134
C  -6.65996327 -0.63117492 -1.67711864
Cl -5.46358649  0.52435361 -1.32578345
C  -1.77568418 -3.34914972  4.22225755
Cl -3.30992984 -3.35602839  3.49010802
C  -1.88528010 -0.84445454 -1.73929815
Cl -0.58102082 -1.76439468 -2.32463384
C  -6.03441547 -0.65682704  2.59892867
Cl -6.14460920 -1.85820573  1.40120308
C  -2.90752043 -4.67004841 -5.04840418
Cl -3.75701131 -3.61434137 -4.02183325
A  -5.07286248  3.30599598  1.48024122
H  -4.49212244  2.49241693  1.50905326
B  -3.50486437  1.10933254  1.55803373
17
step=100 time_fs=100.000 KE=25.971564 PE=74.010557 TE=99.982121 T=544.558
C   1.58377018  2.01989333  5.41285427
Cl  1.09560543  2.61029191  6.93045919
C   1.14517739  2.40336809 -0.52786238
Cl  1.85830519  3.27436602  0.74603375
C  -6.44453493 -0.54373696 -2.15068652
Cl -5.59164086  0.61269149 -1.24225659
C  -1.93233032 -3.39651266  4.30295841
Cl -3.28967037 -3.34507315  3.28071481
C  -1.89575070 -0.84927041 -1.85632784
Cl -0.49678074 -1.67372013 -2.35948357
C  -6.29262437 -1.12105719  2.93039183
Cl -6.16162306 -2.04187550  1.50739068
C  -2.88015289 -4.57812916 -5.03692506
Cl -3.78994413 -3.52405935 -4.06162166
A  -5.56149161  3.87587258  1.45219140
H  -6.34786411  4.00561502  0.91314214
B  -2.58209937  0.26918928  1.66473812
17
step=200 time_fs=200.000 KE=24.843675 PE=75.129038 TE=99.972713 T=520.909
C   1.23542386  2.34232954  5.22504264
Cl  1.14924351  2.49053886  6.91637552
C   1.10042243  2.29925035 -0.42611019
Cl  1.85616230  3.12844677  0.85110966
C  -5.94769157 -0.32850746 -2.59109546
Cl -5.74288965  0.69856143 -1.25199663
C  -1.99352451 -3.40008455  4.39536995
Cl -3.14384929 -3.41034972  3.14371204
C  -2.03545141 -1.03313969 -2.00849631
Cl -0.44260379 -1.50732737 -2.36624275
C  -6.63941237 -1.56671580  3.17113061
Cl -6.31674174 -2.20742344  1.62990467
C  -2.76546311 -4.38603413 -4.87698301
Cl -3.88165881 -3.37087675 -4.09368060
A  -6.11021154  4.49525272  1.39582524
H  -6.52714262  3.66343058  1.62074992
B  -1.54221961 -0.64464103  1.77195090
17
step=300 time_fs=300.000 KE=24.541423 PE=75.425981 TE=99.967404 T=514.572
C   0.90660538  2.76563756  5.15048626
Cl  1.19337674  2.33090452  6.76874748
C   1.02843260  2.09737183 -0.28482306
Cl  1.79619924  2.91152766  0.99489747
C  -5.60299909 -0.11903445 -2.73809254
Cl -5.83578609  0.76192551 -1.30292016
C  -2.05016806 -3.45150502  4.52602961
Cl -3.03989033 -3.69445433  3.16535865
C  -2.01785415 -1.10729655 -1.84233268
Cl -0.40721296 -1.28967378 -2.35475194
C  -6.83216713 -2.03668879  3.29876732
Cl -6.56559439 -2.29382346  1.63960466
C  -2.61829197 -4.10667287 -4.58379389
Cl -4.04299319 -3.25745205 -4.21089919
A  -6.65477974  5.06837690  1.34035301
H  -6.37344181  5.63266425  0.63178208
B  -0.42227330 -1.39841434  1.79181173
17
step=400 time_fs=400.000 KE=24.424369 PE=75.542037 TE=99.966406 T=512.117
C   0.68805209  3.13775943  5.18142752
Cl  1.19928232  2.17848390  6.48849834
C   0.98007353  1.76777145 -0.10999931
Cl  1.66167670  2.63993359  1.18025273
C  -5.70003648  0.04150904 -2.84467934
Cl -5.81779501  0.85434533 -1.35624725
C  -2.17260235 -3.54964044  4.65823091
Cl -3.00288978 -4.02223104  3.25207270
C  -1.76581750 -1.12330453 -1.27425178
Cl -0.42144063 -1.04360756 -2.31170020
C  -6.87088583 -2.51105865  3.29770328
Cl -6.80122738 -2.36373550  1.60553201
C  -2.56548672 -3.78358279 -4.24455810
Cl -4.14888813 -3.17939174 -4.37794898
A  -7.17985887  5.64637624  1.27004600
H  -8.01987677  6.00305058  1.03382905
B   0.74765432 -2.05614105  1.73871050
17
step=500 time_fs=500.000 KE=23.655680 PE=76.313307 TE=99.968986 T=496.000
C   0.61296282  3.38109385  5.21114374
Cl  1.15374860  2.05372838  6.12528358
C   1.05965994  1.48058709  0.06712314
Cl  1.48601540  2.35330984  1.46232063
C  -5.90108144  0.09600495 -2.88698526
Cl -5.70572027  0.92629410 -1.41645680
C  -2.25176958 -3.61183187  4.70769364
Cl -2.98119468 -4.29126810  3.33062957
C  -1.50146433 -1.17262778 -0.75557920
Cl -0.60509442 -0.84426132 -2.16224066
C  -6.76519675 -3.00000777  3.14946879
Cl -7.00382513 -2.42907606  1.56608840
C  -2.61061299 -3.48715511 -3.98612235
Cl -4.17470026 -3.05579430 -4.49362492
A  -7.72544340  6.23189320  1.20423965
H  -7.29042241  5.40131866  1.14114299
B   1.88331105 -2.68317166  1.66752323
17
step=600 time_fs=600.000 KE=22.996928 PE=76.972157 TE=99.969085 T=482.188
C   0.65509082  3.50836981  5.20157071
Cl  1.06177843  1.94370937  5.72734907
C   1.52876869  1.49799137  0.28116717
Cl  1.28888177  2.08886933  1.85702171
C  -6.08186372  0.04854070 -2.80123170
Cl -5.51304744  0.97063133 -1.49119472
C  -2.27663320 -3.66146393  4.70296862
Cl -2.97192870 -4.49811533  3.39660780
C  -1.49879196 -1.36602580 -0.43668398
Cl -0.91239857 -0.74398815 -1.90610970
C  -6.59911989 -3.48319856  2.81719482
Cl -7.15849755 -2.49428340  1.55262238
C  -2.71022200 -3.32001409 -3.87628951
Cl -4.20117393 -2.87275393 -4.55967862
A  -8.25451086  6.77997868  1.13908109
H  -7.88098071  7.57803244  0.82267516
B   2.97834845 -3.27471500  1.57947180
17
step=700 time_fs=700.000 KE=22.191625 PE=77.772678 TE=99.964303 T=465.302
C   0.72035069  3.54322860  5.32936556
Cl  0.93557572  1.85998546  5.43120224
C   2.04622404  1.60808246  0.61261129
Cl  1.08642070  1.75181004  2.00836196
C  -6.20578909 -0.04772999 -2.56630958
Cl -5.24590013  0.95471599 -1.58461959
C  -2.26523270 -3.67980227  4.66229665
Cl -2.93849233 -4.66167691  3.44877135
C  -1.71172136 -1.43080629 -0.11407915
Cl -1.18827196 -0.65456708 -1.53304124
C  -6.50160754 -3.88413960  2.33656842
Cl -7.25846565 -2.58277591  1.54687332
C  -2.84364360 -3.27980155 -3.90803813
Cl -4.26503084 -2.65618807 -4.60141000
A  -8.77284055  7.35062140  1.07265178
H  -9.58108795  7.60032979  0.66777983
B   4.04937608 -3.84380596  1.48496458
17
step=800 time_fs=800.000 KE=23.494575 PE=76.460805 TE=99.955380 T=492.622
C   0.76149729  3.49266169  5.46016985
Cl  0.79223261  1.79421703  5.52605678
C   2.38607687  1.63767672  0.94829353
Cl  0.89123911  1.35448207  1.70675306
C  -6.22259827 -0.14280921 -2.18585237
Cl -4.94570192  0.85667584 -1.67539635
C  -2.23225784 -3.65714178  4.57840552
Cl -2.88882614 -4.77562514  3.47935455
C  -2.08945027 -1.24231024  0.29350299
Cl -1.41199959 -0.61820066 -1.13532443
C  -6.47117609 -4.16831299  1.76902327
Cl -7.29667420 -2.70246044  1.52442326
C  -2.95038064 -3.13274161 -3.93589061
Cl -4.34886732 -2.44904782 -4.61911666
A  -9.31403819  7.92882341  1.00146367
H  -9.10002428  7.01347546  1.07823984
B   5.10998163 -4.40289030  1.38945179
17
step=900 time_fs=900.000 KE=22.926300 PE=77.021453 TE=99.947754 T=480.707
C   0.76494975  3.37731342  5.43359215
Cl  0.66054361  1.70631233  5.72830338
C   2.36930947  1.54468180  1.38095085
Cl  0.77031192  0.97131871  1.31415556
C  -6.11566221 -0.25574223 -1.71122427
Cl -4.72278942  0.71787387 -1.75568853
C  -2.18588591 -3.61233609  4.44637864
Cl -2.87437712 -4.81623278  3.46321406
C  -2.48533726 -0.83008575  0.69653798
Cl -1.59154295 -0.72529120 -0.74573447
C  -6.42027592 -4.31763447  1.21405670
Cl -7.24491081 -2.85137154  1.45910840
C  -3.00041196 -2.74547706 -3.85937564
Cl -4.45283884 -2.27333670 -4.60606140
A  -9.84674722  8.47565309  0.93601921
H  -9.27873744  9.23513346  0.90464416
B   6.16616380 -4.95780561  1.29396968
17
step=1000 time_fs=1000.000 KE=23.847836 PE=76.097404 TE=99.945240 T=500.029
C   0.70778427  3.19709633  5.31786241
Cl  0.55056318  1.60180042  5.88382396
C   2.26185673  1.37131824  1.83883344
Cl  0.84190871  0.74776745  1.14246284
C  -5.93488079 -0.38226156 -1.24566268
Cl -4.76434432  0.64878617 -1.92152134
C  -2.12759657 -3.55209701  4.25876587
Cl -2.91449374 -4.78126758  3.38702477
C  -2.65517408 -0.48750131  1.01387958
Cl -1.86069637 -1.13170555 -0.34398863
C  -6.28205481 -4.37507907  0.75279399
Cl -7.09188057 -2.99588495  1.32899345
C  -3.07204236 -2.09653582 -3.71698294
Cl -4.55549362 -2.15169147 -4.54543344
A  -10.36033242  9.04751449  0.87253924
H  -11.25097359  9.07365421  0.52689150
B   7.22033564 -5.51098888  1.19860522
