14
step=0 time_fs=0.000 KE=1.501970 PE=-6.308412 TE=-4.806441 T=38.760
C   1.88108990  1.86349234  5.62299317
Cl  1.05615644  2.67281205  6.86978361
C   1.14154998  2.44710033 -0.59695312
Cl  1.82429646  3.35286312  0.66932134
C  -6.65996327 -0.63117492 -1.67711864
Cl -5.46358649  0.52435361 -1.32578345
C  -1.77568418 -3.34914972  4.22225755
Cl -3.30992984 -3.35602839  3.49010802
C  -1.88528010 -0.84445454 -1.73929815
Cl -0.58102082 -1.76439468 -2.32463384
C  -6.03441547 -0.65682704  2.59892867
Cl -6.14460920 -1.85820573  1.40120308
C  -2.90752043 -4.67004841 -5.04840418
Cl -3.75701131 -3.61434137 -4.02183325
14
step=100 time_fs=100.000 KE=2.768175 PE=-7.578108 TE=-4.809933 T=71.436
C   1.57512650  2.02430566  5.43127371
Cl  1.08957703  2.61645550  6.94903530
C   1.13731847  2.41265798 -0.50769010
Cl  1.86085303  3.28329126  0.76057464
C  -6.43620842 -0.54505991 -2.13924889
Cl -5.58993221  0.59582543 -1.20533390
C  -1.93014211 -3.40081470  4.32546483
Cl -3.29238458 -3.36799075  3.30899150
C  -1.89520549 -0.83919718 -1.83718422
Cl -0.50408862 -1.67228151 -2.34783512
C  -5.69742551 -0.79560342  2.61742635
Cl -6.18651618 -2.02949351  1.55520906
C  -2.88417258 -4.57267981 -5.01940700
Cl -3.79948693 -3.52142551 -4.04623485
14
step=200 time_fs=200.000 KE=3.354547 PE=-8.168855 TE=-4.814308 T=86.568
C   1.25966194  2.34557456  5.26955663
Cl  1.13029107  2.50775353  6.95685066
C   1.15250066  2.34000653 -0.43136086
Cl  1.86100240  3.15357063  0.88246514
C  -5.98785941 -0.32524368 -2.59001162
Cl -5.70561872  0.61476983 -1.20195009
C  -1.97970004 -3.48891030  4.49775659
Cl -3.07263760 -3.50672198  3.19576956
C  -2.03074500 -1.02061685 -1.91960763
Cl -0.45861372 -1.50406813 -2.34934951
C  -5.62261164 -0.76673367  2.38120234
Cl -6.34245121 -2.17783661  1.76425868
C  -2.78050198 -4.37698916 -4.84620960
Cl -3.89371982 -3.36202108 -4.05843690
14
step=300 time_fs=300.000 KE=3.711975 PE=-8.529341 TE=-4.817366 T=95.792
C   0.98729706  2.77228067  5.20765173
Cl  1.16299763  2.36580899  6.84896525
C   1.20160146  2.20801354 -0.35555906
Cl  1.80721109  2.96778475  1.03942649
C  -5.67651759 -0.15358325 -2.81855449
Cl -5.73496854  0.61118173 -1.30141309
C  -2.05653413 -3.60893919  4.66822858
Cl -2.72448432 -3.65698172  3.10568755
C  -2.02528245 -1.16111057 -1.70952603
Cl -0.45430580 -1.27919563 -2.34834391
C  -5.65535661 -0.81142196  2.07624637
Cl -6.54843080 -2.24875348  1.91346871
C  -2.64202441 -4.09773439 -4.54083729
Cl -4.04150157 -3.22049033 -4.13846119
14
step=400 time_fs=400.000 KE=4.387938 PE=-9.210248 TE=-4.822310 T=113.236
C   0.82312162  3.17515695  5.24734341
Cl  1.16498784  2.23204848  6.61981341
C   1.29024793  2.00902757 -0.26159562
Cl  1.68652193  2.73795285  1.22219509
C  -5.70982507  0.05509839 -3.06309927
Cl -5.65197731  0.64431263 -1.46952461
C  -2.23787436 -3.75021383  4.71395359
Cl -2.35221068 -3.72258062  3.01802799
C  -1.79037750 -1.23234313 -1.19436089
Cl -0.53597583 -1.01712638 -2.32137384
C  -5.61440478 -1.04008864  1.96627729
Cl -6.73896026 -2.31290665  2.03914213
C  -2.56252737 -3.78780015 -4.20795310
Cl -4.13340765 -3.14121880 -4.27328090
14
step=500 time_fs=500.000 KE=4.633846 PE=-9.461359 TE=-4.827513 T=119.582
C   0.78450993  3.45312415  5.29707682
Cl  1.12754479  2.13296274  6.31172008
C   1.41226599  1.78211463 -0.13161149
Cl  1.50079141  2.47735396  1.41719629
C  -5.84450772  0.27967086 -3.25807226
Cl -5.45778197  0.65149226 -1.64494113
C  -2.48213262 -3.89627802  4.55573698
Cl -2.00078742 -3.69280550  2.93805168
C  -1.47318329 -1.22359429 -0.70589690
Cl -0.75367557 -0.74116510 -2.16862405
C  -5.52739353 -1.38229375  1.87376229
Cl -6.87912968 -2.37134193  2.16461122
C  -2.56231400 -3.54730178 -3.99117595
Cl -4.14399098 -3.05148166 -4.36861513
14
step=600 time_fs=600.000 KE=4.991497 PE=-9.823023 TE=-4.831527 T=128.811
C   0.83301836  3.58913684  5.26075642
Cl  1.06045927  2.06232470  5.97287674
C   1.59947334  1.63141163  0.05081679
Cl  1.26341886  2.19587319  1.61876148
C  -5.89788375  0.43241859 -3.33289410
Cl -5.18239810  0.58148716 -1.79801337
C  -2.70304525 -4.01250961  4.17587830
Cl -1.72353688 -3.57818773  2.85605715
C  -1.26043704 -1.14466659 -0.32008571
Cl -1.03338217 -0.48607988 -1.87079833
C  -5.47958125 -1.77393490  1.65551723
Cl -6.91927640 -2.41106883  2.29687377
C  -2.60334329 -3.37052517 -3.87626878
Cl -4.14877442 -2.91111792 -4.41533057
14
step=700 time_fs=700.000 KE=5.140308 PE=-9.974923 TE=-4.834615 T=132.651
C   0.90727545  3.62283074  5.13522459
Cl  0.98079759  2.00077259  5.63873412
C   1.85367439  1.62707951  0.32627802
Cl  0.99384756  1.88263803  1.77036516
C  -5.79995629  0.49340721 -3.31944274
Cl -4.87178773  0.42379384 -1.89688972
C  -2.83700241 -4.06729113  3.67643204
Cl -1.56265530 -3.42293360  2.75402062
C  -1.28487728 -1.01178803  0.03400784
Cl -1.30005575 -0.27705942 -1.49894470
C  -5.55820137 -2.11566658  1.30834332
Cl -6.80700114 -2.44408277  2.41407472
C  -2.65892408 -3.13117288 -3.76414481
Cl -4.17316490 -2.73781407 -4.42923397
14
step=800 time_fs=800.000 KE=4.549507 PE=-9.386716 TE=-4.837208 T=117.405
C   0.95536192  3.60216162  5.00110712
Cl  0.90823485  1.94544751  5.37936287
C   2.03116364  1.65797875  0.68153652
Cl  0.73389113  1.55471548  1.77534672
C  -5.63191831  0.59197730 -3.29165550
Cl -4.71946230  0.20487323 -1.91050581
C  -2.93610110 -4.08565455  3.25851911
Cl -1.50294508 -3.36165454  2.70004995
C  -1.53122845 -0.66632457  0.39434769
Cl -1.33111072 -0.09325843 -1.19359062
C  -5.82544597 -2.28834579  0.91324497
Cl -6.50884146 -2.49501086  2.45605414
C  -2.73131505 -2.72819387 -3.58870599
Cl -4.19662902 -2.61129076 -4.44263142
14
step=900 time_fs=900.000 KE=4.012470 PE=-8.863602 TE=-4.851132 T=103.546
C   0.94747785  3.54960709  4.86578303
Cl  0.86789967  1.90920424  5.30481129
C   2.18222668  1.61099060  0.99260735
Cl  0.67282991  1.44734574  1.75742219
C  -5.46413844  0.85940674 -3.24802473
Cl -4.94136065  0.03944570 -1.85361903
C  -3.01235328 -4.12802870  3.01503036
Cl -1.48247627 -3.45132264  2.71246592
C  -2.26825920 -0.35192143  0.24792053
Cl -1.06979994  0.02190803 -0.89835471
C  -6.22231101 -2.33610384  0.66673034
Cl -6.09319797 -2.55197947  2.34801780
C  -2.80764743 -2.32400343 -3.48281702
Cl -4.15856518 -2.60726511 -4.47517988
14
step=1000 time_fs=1000.000 KE=5.737754 PE=-10.592675 TE=-4.854921 T=148.069
C   0.86937509  3.50174042  4.83405166
Cl  0.87572008  1.91835451  5.45279943
C   2.36460293  1.39896638  1.22437999
Cl  0.77767706  1.55093150  1.81478060
C  -5.27186847  1.15567468 -3.20557315
Cl -5.58339344  0.10146175 -1.90881284
C  -2.75771425 -4.47001951  3.02496759
Cl -1.42136661 -3.49358743  2.63669528
C  -2.28757208 -0.16439952  0.37374532
Cl -1.05245092 -0.07625662 -0.79103215
C  -6.67316150 -2.45612658  0.61688562
Cl -5.82787442 -2.49896745  2.09121747
C  -2.66088346 -2.24970088 -3.61015680
Cl -4.06922855 -2.62538342 -4.48504350
