17
step=0 time_fs=0.000 KE=1.749244 PE=70.001254 TE=71.750497 T=36.677
C   1.88108990  1.86349234  5.62299317
Cl  1.05615644  2.67281205  6.86978361
C   1.14154998  2.44710033 -0.59695312
Cl  1.82429646  3.35286312  0.66932134
C  -6.65996327 -0.63117492 -1.67711864
Cl -5.46358649  0.52435361 -1.32578345
C  -1.77568418 -3.34914972  4.22225755
Cl -3.30992984 -3.35602839  3.49010802
C  -1.88528010 -0.84445454 -1.73929815
Cl -0.58102082 -1.76439468 -2.32463384
C  -6.03441547 -0.65682704  2.59892867
Cl -6.14460920 -1.85820573  1.40120308
C  -2.90752043 -4.67004841 -5.04840418
Cl -3.75701131 -3.61434137 -4.02183325
O  -5.07286248  3.30599598  1.48024122
H  -4.49212244  2.49241693  1.50905326
N  -3.50486437  1.10933254  1.55803373
17
step=100 time_fs=100.000 KE=5.319468 PE=66.429171 TE=71.748639 T=111.536
C   1.58382651  2.02051530  5.41292944
Cl  1.09575549  2.61031493  6.93079738
C   1.14685465  2.40588407 -0.52997397
Cl  1.85852989  3.27454707  0.74632653
C  -6.46036155 -0.55644540 -2.15739530
Cl -5.59925901  0.60785935 -1.26694773
C  -1.93315838 -3.40094606  4.30624807
Cl -3.28866081 -3.34722922  3.28168589
C  -1.89414385 -0.84686998 -1.84480875
Cl -0.49953674 -1.67185331 -2.35907862
C  -6.28617176 -1.14305895  2.94282934
Cl -6.15920225 -2.04009927  1.50435883
C  -2.88051238 -4.57818490 -5.03709777
Cl -3.78977922 -3.52392340 -4.06151256
O  -5.11235166  3.25429989  1.47638411
H  -6.02065239  3.31730089  1.01157330
N  -3.28992247  1.27098880  1.63568330
17
step=200 time_fs=200.000 KE=6.067116 PE=65.676591 TE=71.743707 T=127.212
C   1.23121166  2.35050851  5.22614254
Cl  1.15088024  2.49063730  6.91845185
C   1.09647551  2.32106192 -0.43237069
Cl  1.86002126  3.13278568  0.85141373
C  -5.98948720 -0.38802894 -2.64018420
Cl -5.80780266  0.68815815 -1.33679934
C  -2.00555927 -3.42964968  4.41236425
Cl -3.12361127 -3.38164183  3.13265531
C  -2.01807659 -1.00846048 -1.85595897
Cl -0.47064263 -1.49295675 -2.36655814
C  -6.63164978 -1.63066723  3.20652758
Cl -6.31494368 -2.17254531  1.62663347
C  -2.76639091 -4.38256311 -4.87638251
Cl -3.87859246 -3.36616723 -4.08901530
O  -5.14173133  3.14724419  1.46004397
H  -4.80827357  2.66445016  0.64103774
N  -3.05081744  1.47509413  1.70446590
17
step=300 time_fs=300.000 KE=6.378062 PE=65.361762 TE=71.739824 T=133.732
C   0.87489268  2.79005954  5.16624705
Cl  1.20152751  2.33405149  6.77104185
C   1.01374470  2.16215901 -0.30113241
Cl  1.79955073  2.93303507  0.99434394
C  -5.62973322 -0.21731013 -2.80104060
Cl -5.90814828  0.76989160 -1.44534233
C  -2.06107567 -3.42610171  4.50970017
Cl -2.86634018 -3.40890856  3.01261852
C  -2.02788839 -1.19024078 -1.57465180
Cl -0.51916607 -1.24187878 -2.35637456
C  -6.82299456 -2.06370859  3.31859549
Cl -6.55452870 -2.20241979  1.64566833
C  -2.60479376 -4.09062963 -4.57672128
Cl -3.99840810 -3.20896168 -4.16380400
O  -5.14186459  2.98933750  1.42309390
H  -5.80489783  2.20838283  1.29969880
N  -2.83244848  1.65210842  1.74101125
17
step=400 time_fs=400.000 KE=6.628131 PE=65.104211 TE=71.732342 T=138.975
C   0.61102284  3.18273594  5.22942278
Cl  1.20507271  2.19067151  6.47558205
C   0.88356630  1.94525232 -0.14001123
Cl  1.65812707  2.68496130  1.18017294
C  -5.60747339  0.02036129 -2.92060795
Cl -5.90703551  0.86445682 -1.47569782
C  -2.13372314 -3.38459032  4.52285430
Cl -2.62248062 -3.37539233  2.89465544
C  -1.79024077 -1.32355451 -1.02880422
Cl -0.70178345 -0.95509954 -2.28160172
C  -6.84531565 -2.51247554  3.29353027
Cl -6.76302231 -2.15654978  1.63324576
C  -2.46416511 -3.73928107 -4.23974549
Cl -4.04748297 -3.12175752 -4.28180747
O  -5.12453361  2.77866669  1.39462641
H  -5.68053557  3.06836293  0.60637652
N  -2.63895980  1.81844773  1.73828350
17
step=500 time_fs=500.000 KE=6.099923 PE=65.627468 TE=71.727391 T=127.900
C   0.46160595  3.40487460  5.26139689
Cl  1.14649932  2.08867050  6.09117267
C   0.77802542  1.77004160  0.00980344
Cl  1.44568817  2.41988777  1.43174803
C  -5.63312314  0.17594427 -3.03563389
Cl -5.87273406  0.94215152 -1.53713029
C  -2.20432065 -3.27007264  4.43893522
Cl -2.41396251 -3.28408614  2.75196933
C  -1.52776078 -1.32497249 -0.53066569
Cl -1.04500863 -0.67669057 -2.02621940
C  -6.70436572 -2.90745371  3.09105801
Cl -6.92154363 -2.08000326  1.62199044
C  -2.41166444 -3.46867246 -4.03284935
Cl -4.02189116 -3.03959757 -4.36910022
O  -5.06754145  2.57718507  1.40112611
H  -4.59062933  1.85993439  0.84925321
N  -2.47042976  1.96406839  1.70888975
17
step=600 time_fs=600.000 KE=7.417912 PE=64.305914 TE=71.723825 T=155.535
C   0.37086518  3.47585702  5.14770340
Cl  1.03663450  2.00361394  5.67614595
C   1.07663350  1.91650100  0.08744609
Cl  1.22794485  2.16140264  1.76289471
C  -5.60515882  0.18894701 -3.18966565
Cl -5.78989624  0.93254762 -1.67212480
C  -2.23336581 -3.05434841  4.30913622
Cl -2.26849420 -3.17442267  2.61374595
C  -1.50202944 -1.29259529 -0.18734722
Cl -1.49779863 -0.42959803 -1.65200343
C  -6.45557426 -3.18828657  2.70187877
Cl -7.00579627 -1.99285362  1.62568371
C  -2.40411101 -3.36319063 -3.98982691
Cl -3.99049178 -2.93018641 -4.42099209
O  -4.99888320  2.38520852  1.46692176
H  -5.82813349  1.83137362  1.31621476
N  -2.31797376  2.06963413  1.69801181
17
step=700 time_fs=700.000 KE=8.748331 PE=62.973589 TE=71.721920 T=183.430
C   0.22754850  3.46615279  5.05183362
Cl  0.87873943  1.92251181  5.34014404
C   1.53929167  2.22874332  0.25870763
Cl  1.22512619  1.84156492  1.88394391
C  -5.50818730  0.19133304 -3.32393549
Cl -5.70692595  0.89803519 -1.79061393
C  -2.18572771 -2.66490198  4.28310596
Cl -2.27059799 -3.27047247  2.69688990
C  -1.54860895 -0.96832456 -0.05638964
Cl -1.98280446 -0.08585773 -1.44301380
C  -6.13889206 -3.29293711  2.11640207
Cl -7.01095346 -1.90780201  1.65715305
C  -2.37492624 -3.24530239 -3.93673726
Cl -3.94011853 -2.86297489 -4.47895381
O  -4.97299780  2.18036435  1.57105099
H  -5.57741808  1.96784415  0.79221068
N  -2.24440634  2.14922827  1.70719786
17
step=800 time_fs=800.000 KE=9.126732 PE=62.590632 TE=71.717364 T=191.365
C  -0.01066148  3.38954399  4.99842055
Cl  0.64006716  1.84941845  5.30593568
C   1.85894170  2.52477716  0.38133501
Cl  1.49127027  1.40864394  1.60977482
C  -5.47892649  0.35250409 -3.40156953
Cl -5.68364275  0.89781676 -1.80447049
C  -2.07950379 -2.17036271  4.07880730
Cl -2.34370088 -3.42282957  2.96009078
C  -1.57019186 -0.61454962 -0.09358677
Cl -2.34768666  0.24160716 -1.33957931
C  -5.88153559 -3.17082591  1.39010329
Cl -6.88568009 -1.83271979  1.69204006
C  -2.32958946 -3.01982709 -3.78821096
Cl -3.83792126 -2.89446474 -4.56230363
O  -4.97981191  1.93614353  1.66008613
H  -5.28407353  2.16988702  0.71969128
N  -2.26913005  2.30296470  1.78095638
17
step=900 time_fs=900.000 KE=9.762927 PE=61.945073 TE=71.708000 T=204.704
C  -0.29274257  3.22629370  4.80060753
Cl  0.34150170  1.74579172  5.34452672
C   1.97658334  2.62942161  0.70965991
Cl  1.75065303  1.00242486  1.14765201
C  -5.55908579  0.54535648 -3.40184746
Cl -5.98562252  0.94692406 -1.80597469
C  -2.02638140 -1.76638001  3.61882183
Cl -2.40229033 -3.38256787  3.24918787
C  -1.60427534 -0.60423461 -0.09328345
Cl -2.29246870  0.42624125 -1.25711737
C  -5.69789005 -2.76619272  0.65251152
Cl -6.62245472 -1.77922506  1.68259648
C  -2.35873536 -2.68845010 -3.59610735
Cl -3.70258455 -2.92695356 -4.60960893
O  -4.93062360  1.66387454  1.71864391
H  -5.39097810  0.78448740  1.81480853
N  -2.35929452  2.55830038  1.95885588
17
step=1000 time_fs=1000.000 KE=8.538004 PE=63.164528 TE=71.702533 T=179.020
C  -0.39375863  3.15674063  4.86276291
Cl  0.01725937  1.56694271  5.30277063
C   1.90586409  2.35164711  1.17787352
Cl  1.91596244  0.72986514  0.66824497
C  -5.59664161  0.70039074 -3.28099732
Cl -6.38310929  0.91723883 -1.78953982
C  -2.10047741 -1.47683395  3.46701860
Cl -2.46701041 -3.13648474  3.43219321
C  -1.61732692 -0.52407843 -0.02362863
Cl -2.12417914  0.55668097 -1.23402524
C  -5.55219608 -2.12534072  0.05816108
Cl -6.20719476 -1.72211957  1.57420508
C  -2.40359329 -2.36425781 -3.49413334
Cl -3.59636310 -2.89291683 -4.58400481
O  -4.82287227  1.34512582  1.79515802
H  -4.82529297  1.13022118  0.79875256
N  -2.53029327  2.77250082  2.06546895
